<?xml version="1.0" encoding="UTF-8"?>

<!-- generated on 2025-07-22 06:37:32 by Eclipse SUMO sumo Version 1.24.0
<sumoConfiguration xmlns:xsi="http://www.w3.org/2001/XMLSchema-instance" xsi:noNamespaceSchemaLocation="http://sumo.dlr.de/xsd/sumoConfiguration.xsd">

    <input>
        <net-file value="C:\Users\delphi\testreports\sumoExtra\git\tools\game\A10KW/osm.net.xml"/>
        <route-files value="C:\Users\delphi\testreports\sumoExtra\git\tools\game\A10KW/osm.passenger.rou.xml,C:\Users\delphi\testreports\sumoExtra\git\tools\game\A10KW/osm.truck.rou.xml,C:\Users\delphi\testreports\sumoExtra\git\tools\game\A10KW/osm.passenger_mw.rou.xml,C:\Users\delphi\testreports\sumoExtra\git\tools\game\A10KW/osm.truck_mw.rou.xml,C:\Users\delphi\testreports\sumoExtra\git\tools\game\A10KW/osm.passenger_mwb.rou.xml,C:\Users\delphi\testreports\sumoExtra\git\tools\game\A10KW/osm.truck_mwb.rou.xml,C:\Users\delphi\testreports\sumoExtra\git\tools\game\A10KW/extra.rou.xml"/>
        <additional-files value="C:\Users\delphi\testreports\sumoExtra\git\tools\game\input_additional.add.xml,C:\Users\delphi\testreports\sumoExtra\git\tools\game\A10KW/osm.poly.xml"/>
    </input>

    <output>
        <output-prefix value="output\A10KW."/>
        <tripinfo-output.write-unfinished value="true"/>
        <statistic-output value="stats.xml"/>
    </output>

    <time>
        <end value="1800"/>
        <step-length value="0.5"/>
    </time>

    <processing>
        <ignore-route-errors value="true"/>
        <time-to-teleport value="0"/>
    </processing>

    <routing>
        <device.rerouting.adaptation-steps value="180"/>
    </routing>

    <report>
        <verbose value="false"/>
        <xml-validation value="never"/>
        <no-warnings value="true"/>
        <log value="log"/>
        <duration-log.statistics value="true"/>
        <no-step-log value="true"/>
    </report>

    <gui_only>
        <gui-settings-file value="C:\Users\delphi\testreports\sumoExtra\git\tools\game\A10KW/osm.view.xml"/>
    </gui_only>

</sumoConfiguration>
-->

<meandata xmlns:xsi="http://www.w3.org/2001/XMLSchema-instance" xsi:noNamespaceSchemaLocation="http://sumo.dlr.de/xsd/meandata_file.xsd">
    <interval begin="0.00" end="1800.00" id="dump">
        <edge id="-24498410#1" sampledSeconds="357.77" traveltime="4.56" overlapTraveltime="4.83" density="2.30" laneDensity="2.30" occupancy="1.12" waitingTime="0.00" timeLoss="13.73" speed="18.93" speedRelative="0.97" departed="0" arrived="0" entered="75" left="74" laneChangedFrom="0" laneChangedTo="0"/>
        <edge id="-256366919" sampledSeconds="29547.74" traveltime="1015.53" overlapTraveltime="1027.10" density="110.06" laneDensity="110.06" occupancy="56.27" waitingTime="29175.00" timeLoss="29316.39" speed="0.15" speedRelative="0.01" departed="0" arrived="0" entered="38" left="19" laneChangedFrom="0" laneChangedTo="0"/>
        <edge id="-256366931#0" sampledSeconds="1305.44" traveltime="0.70" overlapTraveltime="94.09" density="98.14" laneDensity="98.14" occupancy="57.45" waitingTime="1284.50" timeLoss="1290.61" speed="0.15" speedRelative="0.01" departed="0" arrived="0" entered="16" left="16" laneChangedFrom="0" laneChangedTo="0"/>
        <edge id="-256366931#1" sampledSeconds="5902.06" traveltime="308.25" overlapTraveltime="313.50" density="73.04" laneDensity="73.04" occupancy="39.42" waitingTime="5809.50" timeLoss="5832.57" speed="0.16" speedRelative="0.01" departed="0" arrived="0" entered="21" left="16" laneChangedFrom="0" laneChangedTo="0"/>
        <edge id="-256366931#3" sampledSeconds="6688.68" traveltime="265.38" overlapTraveltime="268.68" density="62.31" laneDensity="62.31" occupancy="32.98" waitingTime="6537.50" timeLoss="6570.53" speed="0.24" speedRelative="0.02" departed="0" arrived="0" entered="28" left="21" laneChangedFrom="0" laneChangedTo="0"/>
        <edge id="-8008670#1" sampledSeconds="52.60" traveltime="52.24" overlapTraveltime="52.63" density="0.05" laneDensity="0.05" occupancy="0.02" waitingTime="0.00" timeLoss="2.13" speed="12.08" speedRelative="0.87" departed="0" arrived="1" entered="1" left="0" laneChangedFrom="0" laneChangedTo="0"/>
        <edge id="151495015" sampledSeconds="35.31" traveltime="11.40" overlapTraveltime="11.77" density="0.13" laneDensity="0.07" occupancy="0.03" waitingTime="0.00" timeLoss="1.43" speed="13.22" speedRelative="0.95" departed="0" arrived="0" entered="3" left="3" laneChangedFrom="0" laneChangedTo="0"/>
        <edge id="151495016#0" sampledSeconds="8613.79" traveltime="48.73" overlapTraveltime="48.96" density="64.14" laneDensity="21.38" occupancy="10.67" waitingTime="7828.00" timeLoss="7896.82" speed="1.63" speedRelative="0.08" departed="0" arrived="0" entered="178" left="171" laneChangedFrom="3" laneChangedTo="3"/>
        <edge id="151495018" sampledSeconds="12303.32" traveltime="312.97" overlapTraveltime="361.27" density="131.32" laneDensity="131.32" occupancy="56.79" waitingTime="12119.00" timeLoss="12166.82" speed="0.16" speedRelative="0.01" departed="0" arrived="0" entered="38" left="31" laneChangedFrom="0" laneChangedTo="0"/>
        <edge id="151495020" sampledSeconds="273.25" traveltime="3.18" overlapTraveltime="3.46" density="2.56" laneDensity="2.56" occupancy="1.26" waitingTime="0.00" timeLoss="13.25" speed="18.72" speedRelative="0.96" departed="0" arrived="0" entered="79" left="79" laneChangedFrom="0" laneChangedTo="0"/>
        <edge id="151495034" sampledSeconds="39249.78" traveltime="751.33" overlapTraveltime="756.66" density="101.65" laneDensity="101.65" occupancy="52.98" waitingTime="38250.50" timeLoss="38435.86" speed="0.29" speedRelative="0.02" departed="0" arrived="0" entered="66" left="38" laneChangedFrom="0" laneChangedTo="0"/>
        <edge id="151495035#0" sampledSeconds="4265.78" traveltime="1568.12" overlapTraveltime="931.65" density="33.33" laneDensity="16.67" occupancy="8.87" waitingTime="4215.00" timeLoss="4239.09" speed="0.08" speedRelative="0.01" departed="37" arrived="0" entered="0" left="31" laneChangedFrom="0" laneChangedTo="0"/>
        <edge id="151495035#1" sampledSeconds="3642.89" traveltime="122.98" overlapTraveltime="124.52" density="60.59" laneDensity="30.30" occupancy="15.10" waitingTime="3540.50" timeLoss="3558.51" speed="0.31" speedRelative="0.02" departed="0" arrived="0" entered="31" left="27" laneChangedFrom="0" laneChangedTo="0"/>
        <edge id="151495035#2" sampledSeconds="10115.19" traveltime="383.65" overlapTraveltime="444.01" density="84.12" laneDensity="42.06" occupancy="20.43" waitingTime="9926.00" timeLoss="9992.79" speed="0.16" speedRelative="0.01" departed="0" arrived="0" entered="27" left="19" laneChangedFrom="0" laneChangedTo="0"/>
        <edge id="151495040" sampledSeconds="14855.20" traveltime="6.77" overlapTraveltime="7.01" density="56.92" laneDensity="18.97" occupancy="9.92" waitingTime="0.00" timeLoss="3239.10" speed="21.46" speedRelative="0.77" departed="6" arrived="3" entered="2121" left="2115" laneChangedFrom="84" laneChangedTo="84"/>
        <edge id="164719876" sampledSeconds="1106.36" traveltime="5.90" overlapTraveltime="6.18" density="5.47" laneDensity="5.47" occupancy="2.73" waitingTime="0.00" timeLoss="30.16" speed="19.01" speedRelative="0.98" departed="0" arrived="0" entered="179" left="179" laneChangedFrom="0" laneChangedTo="0"/>
        <edge id="164719877" sampledSeconds="1406.81" traveltime="7.58" overlapTraveltime="7.86" density="5.48" laneDensity="5.48" occupancy="2.76" waitingTime="0.00" timeLoss="52.93" speed="18.81" speedRelative="0.97" departed="0" arrived="0" entered="179" left="179" laneChangedFrom="0" laneChangedTo="0"/>
        <edge id="164719879" sampledSeconds="85.69" traveltime="21.04" overlapTraveltime="22.81" density="0.10" laneDensity="0.10" occupancy="0.04" waitingTime="0.00" timeLoss="2.78" speed="20.13" speedRelative="0.91" departed="179" arrived="0" entered="0" left="179" laneChangedFrom="0" laneChangedTo="0"/>
        <edge id="222448597#0" sampledSeconds="50268.12" traveltime="2963.92" overlapTraveltime="3142.60" density="318.47" laneDensity="106.16" occupancy="55.83" waitingTime="50036.00" timeLoss="50191.49" speed="0.03" speedRelative="0.00" departed="0" arrived="0" entered="30" left="0" laneChangedFrom="4" laneChangedTo="4"/>
        <edge id="225981818#1" sampledSeconds="7.15" traveltime="6.74" overlapTraveltime="7.15" density="0.05" laneDensity="0.05" occupancy="0.02" waitingTime="0.00" timeLoss="0.26" speed="12.13" speedRelative="0.87" departed="0" arrived="0" entered="1" left="1" laneChangedFrom="0" laneChangedTo="0"/>
        <edge id="225981818#2" sampledSeconds="4.04" traveltime="3.63" overlapTraveltime="4.04" density="0.05" laneDensity="0.05" occupancy="0.02" waitingTime="0.00" timeLoss="0.14" speed="12.15" speedRelative="0.87" departed="0" arrived="0" entered="1" left="1" laneChangedFrom="0" laneChangedTo="0"/>
        <edge id="225981818#3" sampledSeconds="5.57" traveltime="5.16" overlapTraveltime="5.57" density="0.05" laneDensity="0.05" occupancy="0.02" waitingTime="0.00" timeLoss="0.17" speed="12.20" speedRelative="0.88" departed="0" arrived="0" entered="1" left="1" laneChangedFrom="0" laneChangedTo="0"/>
        <edge id="240042192#0" sampledSeconds="19946.51" traveltime="1822.23" overlapTraveltime="1877.78" density="86.45" laneDensity="28.82" occupancy="15.31" waitingTime="19803.00" timeLoss="19874.07" speed="0.07" speedRelative="0.00" departed="0" arrived="0" entered="15" left="3" laneChangedFrom="0" laneChangedTo="0"/>
        <edge id="240042194#0" sampledSeconds="40178.47" traveltime="3215.22" overlapTraveltime="3399.36" density="251.11" laneDensity="83.70" occupancy="41.99" waitingTime="39978.50" timeLoss="40097.28" speed="0.03" speedRelative="0.00" departed="0" arrived="0" entered="24" left="0" laneChangedFrom="0" laneChangedTo="0"/>
        <edge id="240042212" sampledSeconds="89731.98" traveltime="40.75" overlapTraveltime="41.02" density="187.18" laneDensity="46.79" occupancy="24.47" waitingTime="55964.42" timeLoss="68075.69" speed="6.62" speedRelative="0.24" departed="7" arrived="4" entered="2206" left="2159" laneChangedFrom="170" laneChangedTo="170"/>
        <edge id="24498409" sampledSeconds="638.78" traveltime="8.42" overlapTraveltime="8.66" density="1.97" laneDensity="1.97" occupancy="0.98" waitingTime="0.00" timeLoss="37.31" speed="21.41" speedRelative="0.96" departed="0" arrived="0" entered="74" left="73" laneChangedFrom="0" laneChangedTo="0"/>
        <edge id="24498410#0" sampledSeconds="32260.50" traveltime="2819.59" overlapTraveltime="2986.55" density="203.16" laneDensity="101.58" occupancy="53.06" waitingTime="32111.00" timeLoss="32206.66" speed="0.03" speedRelative="0.00" departed="0" arrived="0" entered="19" left="0" laneChangedFrom="0" laneChangedTo="0"/>
        <edge id="253109038" sampledSeconds="19.73" traveltime="5.94" overlapTraveltime="6.58" density="0.16" laneDensity="0.08" occupancy="0.04" waitingTime="0.00" timeLoss="3.82" speed="11.11" speedRelative="0.80" departed="0" arrived="0" entered="3" left="3" laneChangedFrom="0" laneChangedTo="0"/>
        <edge id="253109039" sampledSeconds="2956.78" traveltime="23.43" overlapTraveltime="46.93" density="133.33" laneDensity="133.33" occupancy="43.72" waitingTime="2885.50" timeLoss="2910.12" speed="0.22" speedRelative="0.02" departed="0" arrived="0" entered="64" left="63" laneChangedFrom="0" laneChangedTo="0"/>
        <edge id="253109040" sampledSeconds="2.55" traveltime="0.18" overlapTraveltime="0.64" density="0.76" laneDensity="0.38" occupancy="0.05" waitingTime="0.00" timeLoss="0.62" speed="10.76" speedRelative="0.77" departed="0" arrived="0" entered="4" left="4" laneChangedFrom="0" laneChangedTo="0"/>
        <edge id="253109041" sampledSeconds="1300.51" traveltime="0.28" overlapTraveltime="75.80" density="266.67" laneDensity="133.33" occupancy="14.42" waitingTime="1283.00" timeLoss="1291.14" speed="0.10" speedRelative="0.01" departed="0" arrived="0" entered="17" left="17" laneChangedFrom="0" laneChangedTo="0"/>
        <edge id="253109042" sampledSeconds="1554.21" traveltime="23.30" overlapTraveltime="24.01" density="110.56" laneDensity="55.28" occupancy="26.90" waitingTime="1444.00" timeLoss="1494.24" speed="0.53" speedRelative="0.04" departed="0" arrived="0" entered="65" left="64" laneChangedFrom="51" laneChangedTo="51"/>
        <edge id="253109043" sampledSeconds="4403.72" traveltime="23.97" overlapTraveltime="77.85" density="266.67" laneDensity="133.33" occupancy="37.02" waitingTime="4352.50" timeLoss="4368.69" speed="0.11" speedRelative="0.01" departed="0" arrived="0" entered="62" left="61" laneChangedFrom="9" laneChangedTo="9"/>
        <edge id="253109044" sampledSeconds="1.77" traveltime="1.35" overlapTraveltime="1.77" density="0.07" laneDensity="0.07" occupancy="0.03" waitingTime="0.00" timeLoss="0.54" speed="10.93" speedRelative="0.79" departed="0" arrived="0" entered="1" left="1" laneChangedFrom="0" laneChangedTo="0"/>
        <edge id="253109045" sampledSeconds="4053.75" traveltime="176.15" overlapTraveltime="270.76" density="128.84" laneDensity="128.84" occupancy="46.42" waitingTime="4007.50" timeLoss="4028.66" speed="0.08" speedRelative="0.01" departed="0" arrived="0" entered="16" left="14" laneChangedFrom="0" laneChangedTo="0"/>
        <edge id="256366918" sampledSeconds="595.21" traveltime="7.78" overlapTraveltime="8.04" density="2.25" laneDensity="2.25" occupancy="1.11" waitingTime="0.00" timeLoss="27.08" speed="18.95" speedRelative="0.97" departed="0" arrived="0" entered="74" left="74" laneChangedFrom="0" laneChangedTo="0"/>
        <edge id="256366921#0" sampledSeconds="396.85" traveltime="4.04" overlapTraveltime="4.31" density="2.87" laneDensity="0.96" occupancy="0.46" waitingTime="0.00" timeLoss="14.82" speed="18.99" speedRelative="0.98" departed="0" arrived="0" entered="92" left="92" laneChangedFrom="0" laneChangedTo="0"/>
        <edge id="256366923#0" sampledSeconds="18612.81" traveltime="467.30" overlapTraveltime="473.33" density="205.00" laneDensity="68.33" occupancy="33.81" waitingTime="18421.50" timeLoss="18501.66" speed="0.12" speedRelative="0.01" departed="0" arrived="0" entered="46" left="34" laneChangedFrom="0" laneChangedTo="0"/>
        <edge id="256366925" sampledSeconds="192.49" traveltime="14.44" overlapTraveltime="14.72" density="0.39" laneDensity="0.20" occupancy="0.10" waitingTime="0.00" timeLoss="8.40" speed="18.97" speedRelative="0.98" departed="2" arrived="0" entered="13" left="15" laneChangedFrom="0" laneChangedTo="0"/>
        <edge id="256366926#0" sampledSeconds="1689.97" traveltime="42.03" overlapTraveltime="42.16" density="116.20" laneDensity="58.10" occupancy="28.82" waitingTime="1653.50" timeLoss="1663.17" speed="0.31" speedRelative="0.02" departed="1" arrived="0" entered="40" left="40" laneChangedFrom="2" laneChangedTo="2"/>
        <edge id="256366926#1" sampledSeconds="27407.24" traveltime="838.31" overlapTraveltime="846.83" density="121.70" laneDensity="60.85" occupancy="30.42" waitingTime="27065.00" timeLoss="27192.36" speed="0.15" speedRelative="0.01" departed="0" arrived="0" entered="40" left="24" laneChangedFrom="1" laneChangedTo="1"/>
        <edge id="256366927" sampledSeconds="500.54" traveltime="31.13" overlapTraveltime="31.39" density="0.45" laneDensity="0.23" occupancy="0.12" waitingTime="0.00" timeLoss="12.54" speed="19.71" speedRelative="1.01" departed="0" arrived="16" entered="16" left="0" laneChangedFrom="1" laneChangedTo="1"/>
        <edge id="256366928#0" sampledSeconds="19404.32" traveltime="1043.53" overlapTraveltime="1061.47" density="137.66" laneDensity="45.89" occupancy="21.83" waitingTime="19260.00" timeLoss="19327.42" speed="0.08" speedRelative="0.00" departed="0" arrived="0" entered="24" left="13" laneChangedFrom="0" laneChangedTo="0"/>
        <edge id="256366930" sampledSeconds="13691.34" traveltime="1274.40" overlapTraveltime="1325.37" density="106.47" laneDensity="53.24" occupancy="30.42" waitingTime="13580.00" timeLoss="13633.51" speed="0.06" speedRelative="0.00" departed="0" arrived="0" entered="15" left="6" laneChangedFrom="0" laneChangedTo="0"/>
        <edge id="26216780#0" sampledSeconds="45280.94" traveltime="9861.42" overlapTraveltime="8542.04" density="87.35" laneDensity="87.35" occupancy="42.88" waitingTime="45005.00" timeLoss="45171.85" speed="0.03" speedRelative="0.00" departed="89" arrived="0" entered="0" left="55" laneChangedFrom="0" laneChangedTo="0"/>
        <edge id="26216780#1" sampledSeconds="2923.49" traveltime="53.46" overlapTraveltime="54.34" density="133.33" laneDensity="133.33" occupancy="56.77" waitingTime="2840.00" timeLoss="2862.40" speed="0.29" speedRelative="0.02" departed="0" arrived="0" entered="55" left="53" laneChangedFrom="0" laneChangedTo="0"/>
        <edge id="264306385" sampledSeconds="263563.48" traveltime="183.99" overlapTraveltime="184.13" density="122.29" laneDensity="40.76" occupancy="21.78" waitingTime="87037.00" timeLoss="201101.95" speed="6.53" speedRelative="0.24" departed="2422" arrived="0" entered="0" left="2115" laneChangedFrom="540" laneChangedTo="540"/>
        <edge id="264308373" sampledSeconds="93224.09" traveltime="43.21" overlapTraveltime="43.42" density="49.86" laneDensity="16.62" occupancy="8.96" waitingTime="0.00" timeLoss="11570.66" speed="24.05" speedRelative="0.87" departed="0" arrived="2137" entered="2171" left="0" laneChangedFrom="450" laneChangedTo="450"/>
        <edge id="264308374" sampledSeconds="17135.37" traveltime="7.60" overlapTraveltime="7.83" density="54.97" laneDensity="13.74" occupancy="7.22" waitingTime="0.00" timeLoss="2892.59" speed="22.81" speedRelative="0.82" departed="1" arrived="0" entered="2193" left="2184" laneChangedFrom="259" laneChangedTo="259"/>
        <edge id="264308375" sampledSeconds="50705.72" traveltime="23.43" overlapTraveltime="24.28" density="201.37" laneDensity="50.34" occupancy="25.79" waitingTime="34896.00" timeLoss="39708.98" speed="5.98" speedRelative="0.22" departed="4" arrived="4" entered="2114" left="2059" laneChangedFrom="78" laneChangedTo="78"/>
        <edge id="264308376" sampledSeconds="85421.29" traveltime="41.49" overlapTraveltime="41.70" density="47.69" laneDensity="15.90" occupancy="8.56" waitingTime="0.00" timeLoss="11219.73" speed="23.99" speedRelative="0.86" departed="0" arrived="2042" entered="2063" left="0" laneChangedFrom="453" laneChangedTo="453"/>
        <edge id="264308383" sampledSeconds="20319.47" traveltime="9.98" overlapTraveltime="10.22" density="49.94" laneDensity="16.65" occupancy="8.81" waitingTime="0.00" timeLoss="3627.51" speed="22.66" speedRelative="0.82" departed="4" arrived="2" entered="1992" left="1987" laneChangedFrom="128" laneChangedTo="128"/>
        <edge id="290296351" sampledSeconds="189502.36" traveltime="143.75" overlapTraveltime="143.72" density="109.71" laneDensity="36.57" occupancy="19.58" waitingTime="76909.00" timeLoss="143279.21" speed="6.71" speedRelative="0.24" departed="2402" arrived="0" entered="0" left="2206" laneChangedFrom="301" laneChangedTo="301"/>
        <edge id="308396219" sampledSeconds="1554.84" traveltime="16.63" overlapTraveltime="16.90" density="2.73" laneDensity="1.37" occupancy="0.69" waitingTime="0.00" timeLoss="56.88" speed="19.00" speedRelative="0.98" departed="0" arrived="0" entered="92" left="92" laneChangedFrom="1" laneChangedTo="1"/>
        <edge id="308396220" sampledSeconds="400.84" traveltime="4.89" overlapTraveltime="5.14" density="2.19" laneDensity="2.19" occupancy="1.11" waitingTime="0.00" timeLoss="27.83" speed="20.86" speedRelative="0.94" departed="0" arrived="0" entered="79" left="78" laneChangedFrom="0" laneChangedTo="0"/>
        <edge id="360414561" sampledSeconds="96758.63" traveltime="7288.56" overlapTraveltime="7344.37" density="95.16" laneDensity="47.58" occupancy="24.10" waitingTime="95354.00" timeLoss="96374.99" speed="0.08" speedRelative="0.00" departed="112" arrived="0" entered="0" left="48" laneChangedFrom="6" laneChangedTo="6"/>
        <edge id="38234312" sampledSeconds="196.83" traveltime="11.31" overlapTraveltime="11.58" density="0.50" laneDensity="0.25" occupancy="0.12" waitingTime="0.00" timeLoss="5.27" speed="19.50" speedRelative="1.00" departed="0" arrived="0" entered="17" left="17" laneChangedFrom="1" laneChangedTo="1"/>
        <edge id="399250313" sampledSeconds="16165.58" traveltime="7.19" overlapTraveltime="7.42" density="53.49" laneDensity="17.83" occupancy="9.36" waitingTime="0.00" timeLoss="2402.29" speed="23.37" speedRelative="0.84" departed="0" arrived="5" entered="2184" left="2171" laneChangedFrom="132" laneChangedTo="132"/>
        <edge id="403940535" sampledSeconds="641.61" traveltime="3.31" overlapTraveltime="3.59" density="5.78" laneDensity="5.78" occupancy="2.78" waitingTime="0.00" timeLoss="29.80" speed="18.64" speedRelative="0.96" departed="0" arrived="0" entered="179" left="178" laneChangedFrom="0" laneChangedTo="0"/>
        <edge id="4054057" sampledSeconds="17840.58" traveltime="8.43" overlapTraveltime="8.67" density="50.73" laneDensity="12.68" occupancy="6.67" waitingTime="55.50" timeLoss="2877.12" speed="23.16" speedRelative="0.83" departed="8" arrived="0" entered="2060" left="2063" laneChangedFrom="252" laneChangedTo="252"/>
        <edge id="4935288" sampledSeconds="53945.51" traveltime="1254.53" overlapTraveltime="1312.40" density="239.64" laneDensity="119.82" occupancy="59.20" waitingTime="53375.50" timeLoss="53553.71" speed="0.10" speedRelative="0.01" departed="0" arrived="0" entered="58" left="25" laneChangedFrom="11" laneChangedTo="11"/>
        <edge id="4935300#0" sampledSeconds="29.36" traveltime="6.98" overlapTraveltime="7.34" density="0.17" laneDensity="0.09" occupancy="0.04" waitingTime="0.00" timeLoss="1.65" speed="13.43" speedRelative="0.97" departed="0" arrived="0" entered="4" left="4" laneChangedFrom="0" laneChangedTo="0"/>
        <edge id="4935300#2" sampledSeconds="21.65" traveltime="5.21" overlapTraveltime="5.56" density="0.17" laneDensity="0.08" occupancy="0.04" waitingTime="0.00" timeLoss="0.89" speed="13.67" speedRelative="0.98" departed="0" arrived="4" entered="4" left="0" laneChangedFrom="0" laneChangedTo="0"/>
        <edge id="8008670#0" sampledSeconds="7295.65" traveltime="7827.55" overlapTraveltime="6267.82" density="6.45" laneDensity="6.45" occupancy="3.22" waitingTime="7165.50" timeLoss="7243.41" speed="0.10" speedRelative="0.01" departed="45" arrived="0" entered="0" left="28" laneChangedFrom="0" laneChangedTo="0"/>
    </interval>
    <interval begin="0.00" end="1800.00" id="hbefa">
        <edge id="-24498410#1" sampledSeconds="337.67" CO_abs="11300.40" CO2_abs="1176036.28" HC_abs="79.00" PMx_abs="171.99" NOx_abs="477.45" fuel_abs="380753.37" electricity_abs="0.00"
            CO_normed="262.04" CO2_normed="27270.41" HC_normed="1.83" PMx_normed="3.99" NOx_normed="11.07" fuel_normed="8829.06" electricity_normed="0.00"
            traveltime="4.56" CO_perVeh="152.45" CO2_perVeh="15865.26" HC_perVeh="1.07" PMx_perVeh="2.32" NOx_perVeh="6.44" fuel_perVeh="5136.54" electricity_perVeh="0.00"/>
        <edge id="-256366919" sampledSeconds="29541.18" CO_abs="12080.42" CO2_abs="46308505.62" HC_abs="209.23" PMx_abs="2469.40" NOx_abs="17561.50" fuel_abs="15003488.24" electricity_abs="0.00"
            CO_normed="161.99" CO2_normed="620965.55" HC_normed="2.81" PMx_normed="33.11" NOx_normed="235.49" fuel_normed="201186.57" electricity_normed="0.00"
            traveltime="1015.53" CO_perVeh="415.28" CO2_perVeh="1591930.30" HC_perVeh="7.19" PMx_perVeh="84.89" NOx_perVeh="603.71" fuel_perVeh="515769.34" electricity_perVeh="0.00"/>
        <edge id="-256366931#0" sampledSeconds="11.18" CO_abs="53.25" CO2_abs="20068.05" HC_abs="0.57" PMx_abs="3.52" NOx_abs="8.50" fuel_abs="6473.66" electricity_abs="0.00"
            CO_normed="14.41" CO2_normed="5431.14" HC_normed="0.15" PMx_normed="0.95" NOx_normed="2.30" fuel_normed="1752.01" electricity_normed="0.00"
            traveltime="0.70" CO_perVeh="3.33" CO2_perVeh="1254.25" HC_perVeh="0.04" PMx_perVeh="0.22" NOx_perVeh="0.53" fuel_perVeh="404.60" electricity_perVeh="0.00"/>
        <edge id="-256366931#1" sampledSeconds="5895.01" CO_abs="1886.76" CO2_abs="9469684.63" HC_abs="102.09" PMx_abs="1683.23" NOx_abs="3069.31" fuel_abs="3063660.94" electricity_abs="0.00"
            CO_normed="84.06" CO2_normed="421906.20" HC_normed="4.55" PMx_normed="74.99" NOx_normed="136.75" fuel_normed="136496.37" electricity_normed="0.00"
            traveltime="308.25" CO_perVeh="98.66" CO2_perVeh="495173.82" HC_perVeh="5.34" PMx_perVeh="88.02" NOx_perVeh="160.50" fuel_perVeh="160200.13" electricity_perVeh="0.00"/>
        <edge id="-256366931#3" sampledSeconds="6679.84" CO_abs="2302.52" CO2_abs="10643087.40" HC_abs="91.36" PMx_abs="1433.03" NOx_abs="3665.23" fuel_abs="3444937.97" electricity_abs="0.00"
            CO_normed="77.21" CO2_normed="356911.05" HC_normed="3.06" PMx_normed="48.06" NOx_normed="122.91" fuel_normed="115524.41" electricity_normed="0.00"
            traveltime="265.38" CO_perVeh="91.48" CO2_perVeh="422833.36" HC_perVeh="3.63" PMx_perVeh="56.93" NOx_perVeh="145.61" fuel_perVeh="136862.05" electricity_perVeh="0.00"/>
        <edge id="-8008670#1" sampledSeconds="52.24" CO_abs="676.00" CO2_abs="109849.80" HC_abs="4.50" PMx_abs="11.40" NOx_abs="38.69" fuel_abs="35611.88" electricity_abs="0.00"
            CO_normed="2.14" CO2_normed="348.26" HC_normed="0.01" PMx_normed="0.04" NOx_normed="0.12" fuel_normed="112.90" electricity_normed="0.00"
            traveltime="52.24" CO_perVeh="676.00" CO2_perVeh="109849.80" HC_perVeh="4.50" PMx_perVeh="11.40" NOx_perVeh="38.69" fuel_perVeh="35611.88" electricity_perVeh="0.00"/>
        <edge id="151495015" sampledSeconds="34.19" CO_abs="512.75" CO2_abs="75491.95" HC_abs="3.42" PMx_abs="8.66" NOx_abs="27.19" fuel_abs="24473.53" electricity_abs="0.00"
            CO_normed="6.81" CO2_normed="1002.82" HC_normed="0.05" PMx_normed="0.11" NOx_normed="0.36" fuel_normed="325.10" electricity_normed="0.00"
            traveltime="11.40" CO_perVeh="170.92" CO2_perVeh="25163.98" HC_perVeh="1.14" PMx_perVeh="2.89" NOx_perVeh="9.06" fuel_perVeh="8157.84" electricity_perVeh="0.00"/>
        <edge id="151495016#0" sampledSeconds="8565.94" CO_abs="22404.50" CO2_abs="14507910.88" HC_abs="160.72" PMx_abs="391.71" NOx_abs="5864.95" fuel_abs="4701703.53" electricity_abs="0.00"
            CO_normed="600.58" CO2_normed="388899.90" HC_normed="4.31" PMx_normed="10.50" NOx_normed="157.22" fuel_normed="126034.14" electricity_normed="0.00"
            traveltime="48.73" CO_perVeh="127.45" CO2_perVeh="82527.53" HC_perVeh="0.91" PMx_perVeh="2.23" NOx_perVeh="33.36" fuel_perVeh="26745.41" electricity_perVeh="0.00"/>
        <edge id="151495018" sampledSeconds="10717.81" CO_abs="1632.62" CO2_abs="16352026.32" HC_abs="12.09" PMx_abs="38.97" NOx_abs="6574.09" fuel_abs="5301057.25" electricity_abs="0.00"
            CO_normed="62.73" CO2_normed="628319.94" HC_normed="0.46" PMx_normed="1.50" NOx_normed="252.61" fuel_normed="203690.96" electricity_normed="0.00"
            traveltime="312.97" CO_perVeh="47.67" CO2_perVeh="477494.51" HC_perVeh="0.35" PMx_perVeh="1.14" NOx_perVeh="191.97" fuel_perVeh="154795.85" electricity_perVeh="0.00"/>
        <edge id="151495020" sampledSeconds="251.01" CO_abs="8289.02" CO2_abs="1047925.51" HC_abs="61.13" PMx_abs="161.30" NOx_abs="437.43" fuel_abs="338827.05" electricity_abs="0.00"
            CO_normed="279.04" CO2_normed="35277.75" HC_normed="2.06" PMx_normed="5.43" NOx_normed="14.73" fuel_normed="11406.40" electricity_normed="0.00"
            traveltime="3.18" CO_perVeh="104.92" CO2_perVeh="13264.88" HC_perVeh="0.77" PMx_perVeh="2.04" NOx_perVeh="5.54" fuel_perVeh="4288.95" electricity_perVeh="0.00"/>
        <edge id="151495034" sampledSeconds="39234.65" CO_abs="15543.13" CO2_abs="61833352.50" HC_abs="435.36" PMx_abs="6368.65" NOx_abs="22104.24" fuel_abs="20022394.52" electricity_abs="0.00"
            CO_normed="144.92" CO2_normed="576507.88" HC_normed="4.06" PMx_normed="59.38" NOx_normed="206.09" fuel_normed="186680.29" electricity_normed="0.00"
            traveltime="751.33" CO_perVeh="297.64" CO2_perVeh="1184079.77" HC_perVeh="8.34" PMx_perVeh="121.96" NOx_perVeh="423.29" fuel_perVeh="383419.49" electricity_perVeh="0.00"/>
        <edge id="151495035#0" sampledSeconds="4253.41" CO_abs="704.57" CO2_abs="6699013.77" HC_abs="57.24" PMx_abs="985.92" NOx_abs="2254.82" fuel_abs="2168102.59" electricity_abs="0.00"
            CO_normed="19.82" CO2_normed="188439.21" HC_normed="1.61" PMx_normed="27.73" NOx_normed="63.43" fuel_normed="60987.41" electricity_normed="0.00"
            traveltime="1568.12" CO_perVeh="259.76" CO2_perVeh="2469750.50" HC_perVeh="21.10" PMx_perVeh="363.48" NOx_perVeh="831.29" fuel_perVeh="799322.50" electricity_perVeh="0.00"/>
        <edge id="151495035#1" sampledSeconds="3631.82" CO_abs="1023.36" CO2_abs="5552938.69" HC_abs="7.02" PMx_abs="19.55" NOx_abs="2228.42" fuel_abs="1800205.56" electricity_abs="0.00"
            CO_normed="61.28" CO2_normed="332511.30" HC_normed="0.42" PMx_normed="1.17" NOx_normed="133.44" fuel_normed="107796.74" electricity_normed="0.00"
            traveltime="122.98" CO_perVeh="34.65" CO2_perVeh="188027.25" HC_perVeh="0.24" PMx_perVeh="0.66" NOx_perVeh="75.46" fuel_perVeh="60956.50" electricity_perVeh="0.00"/>
        <edge id="151495035#2" sampledSeconds="8859.16" CO_abs="1255.93" CO2_abs="13452980.08" HC_abs="8.84" PMx_abs="26.77" NOx_abs="5402.96" fuel_abs="4361320.56" electricity_abs="0.00"
            CO_normed="37.60" CO2_normed="402783.83" HC_normed="0.26" PMx_normed="0.80" NOx_normed="161.77" fuel_normed="130578.46" electricity_normed="0.00"
            traveltime="383.65" CO_perVeh="54.39" CO2_perVeh="582594.24" HC_perVeh="0.38" PMx_perVeh="1.16" NOx_perVeh="233.98" fuel_perVeh="188871.18" electricity_perVeh="0.00"/>